ITEM: TIMESTEP
4260000
ITEM: NUMBER OF ATOMS
768
ITEM: BOX BOUNDS xy xz yz pp pp pp
2.3986882417784372e-01 2.3745871998537488e+01 3.9450776191419928e-03
3.7066995104599343e-01 2.3375155703233084e+01 2.7779527189128522e-01
4.8311766858301297e-02 2.3655688706336989e+01 4.1825181073666617e-02
ITEM: ATOMS id type x y z
1 5 0.637465 23.056 0.0827038
2 5 0.442884 23.2446 5.97726
3 5 0.521587 0.675229 11.7786
4 5 23.5605 0.738536 17.7881
5 5 0.491824 5.99747 0.40986
6 5 23.3864 6.22533 5.99321
7 5 23.4861 5.92426 11.9089
8 5 0.607113 6.26962 17.6458
9 5 23.521 12.0765 23.4581
10 5 23.4578 11.4862 5.75681
11 5 23.4266 11.7281 11.7539
12 5 0.468041 11.7768 17.597
13 5 23.6181 17.6624 23.3885
14 5 23.3551 17.4715 5.73555
15 5 0.446329 17.511 11.7081
16 5 0.494084 17.6571 17.6558
17 5 6.41852 0.421507 0.0517434
18 5 6.369 0.663491 5.73281
19 5 6.14225 23.2322 11.6094
20 5 6.06466 23.3074 17.6563
21 5 6.15216 6.06045 0.085834
22 5 6.15164 6.04868 5.83764
23 5 6.0636 6.00333 12.4175
24 5 6.28556 5.98667 17.9741
25 5 6.15416 11.8566 0.204557
26 5 6.00246 11.7246 6.01415
27 5 6.13437 11.6288 12.1566
28 5 6.36388 11.6398 17.9459
29 5 6.30006 17.5302 23.5573
30 5 6.17265 17.5431 5.92795
31 5 6.35189 17.5822 11.7332
32 5 6.05949 17.1454 17.7632
33 5 12.0023 0.468543 0.153827
34 5 11.9568 0.608015 5.97011
35 5 11.9755 0.561726 11.7046
36 5 12.1313 0.430609 17.8817
37 5 12.1622 6.00226 0.239842
38 5 11.9406 6.02162 6.19348
39 5 12.0004 6.36168 12.1871
40 5 12.1704 6.18462 17.8074
41 5 12.5249 11.9627 23.3486
42 5 11.8177 11.6307 5.86452
43 5 11.861 11.9749 11.6255
44 5 12.1103 12.0347 17.5085
45 5 12.2018 17.7625 23.4876
46 5 11.9091 17.683 5.7978
47 5 11.843 17.8133 11.4988
48 5 12.1085 17.3702 17.517
49 5 17.6354 23.216 0.287692
50 5 18.0054 23.2287 5.93067
51 5 18.0178 23.2241 12.2953
52 5 17.9585 23.3131 18.0216
53 5 17.7017 6.55643 0.282872
54 5 17.4503 6.32747 5.9897
55 5 17.648 6.21367 11.9845
56 5 17.9553 5.95046 18.0923
57 5 17.6802 12.3564 23.5143
58 5 17.7511 12.2436 6.01107
59 5 17.4378 12.158 11.8815
60 5 17.9827 11.6853 17.7323
61 5 17.8913 17.7313 23.5394
62 5 17.7265 17.7849 5.82674
63 5 18.1618 18.1105 11.6775
64 5 17.8346 17.5223 17.3857
65 1 3.74247 22.3124 23.291
66 1 1.12938 3.12934 0.31016
67 1 0.378093 23.0673 3.04177
68 1 3.28904 22.4907 5.72426
69 1 0.685587 3.19914 5.64417
70 1 22.6233 0.54469 8.87219
71 1 3.33048 22.092 11.7194
72 1 1.32719 3.38092 12.2453
73 1 0.60912 0.50695 14.8269
74 1 3.1342 22.6978 17.949
75 1 1.07451 3.4869 17.9365
76 1 0.707417 0.860005 20.7155
77 1 3.44726 6.85667 0.405685
78 1 23.2067 8.86168 0.18759
79 1 22.3806 6.14357 3.04576
80 1 3.04181 6.66244 6.03224
81 1 22.0827 8.75591 6.32954
82 1 0.493611 5.64075 8.78698
83 1 3.21761 6.62454 11.7067
84 1 22.7999 9.02822 11.5848
85 1 0.663063 6.53579 14.6742
86 1 3.39317 7.06694 17.4989
87 1 22.6319 8.97941 17.594
88 1 0.921926 6.1399 20.993
89 1 3.39592 11.4078 23.6044
90 1 0.704442 14.7387 0.1147
91 1 0.90561 12.206 2.91357
92 1 3.2071 10.8689 5.95777
93 1 0.673875 14.4766 5.93322
94 1 23.1541 11.9826 8.86923
95 1 3.26877 10.8027 11.9327
96 1 1.48245 14.7716 11.6212
97 1 22.9299 11.9124 14.6811
98 1 3.3326 11.2044 18.4626
99 1 0.978191 14.6137 17.8064
100 1 0.535353 12.0138 20.5895
101 1 3.24968 18.2867 23.0262
102 1 22.7731 20.6217 23.2061
103 1 0.502217 17.4398 2.71788
104 1 3.11015 17.7525 5.85276
105 1 22.8989 20.1641 6.12691
106 1 0.529148 17.0877 8.70579
107 1 3.44012 17.8483 11.0905
108 1 23.0695 20.5508 12.103
109 1 0.8991 17.0488 14.6189
110 1 3.22021 18.1884 17.9221
111 1 22.6774 20.8123 17.83
112 1 23.181 17.5208 20.4933
113 1 9.36157 1.57666 0.454111
114 1 5.16064 3.16944 0.156244
115 1 5.69793 0.487445 2.8587
116 1 9.08258 1.61071 6.143
117 1 5.30202 3.34249 6.00658
118 1 5.90698 23.1292 8.49679
119 1 8.95321 0.942457 11.8849
120 1 5.17978 3.2529 11.7875
121 1 6.21927 23.1427 14.5946
122 1 9.02826 23.2159 17.6233
123 1 5.47029 3.27622 17.2439
124 1 6.0106 22.796 20.3996
125 1 9.54958 5.73512 23.39
126 1 6.87321 8.96929 23.0505
127 1 5.99428 7.14264 2.91525
128 1 8.87585 5.16592 5.98143
129 1 6.63221 8.95978 6.6776
130 1 6.18056 6.02712 8.70764
131 1 8.99658 5.54106 11.607
132 1 6.92536 8.80988 11.9829
133 1 6.82871 6.64582 15.1061
134 1 9.48301 5.24068 18.1622
135 1 7.37908 8.81872 18.447
136 1 6.65955 5.78012 20.7299
137 1 9.17887 11.997 0.294244
138 1 5.69971 14.8004 23.0966
139 1 6.40287 11.1924 2.97537
140 1 8.86477 12.0562 5.75182
141 1 5.58585 14.6441 5.97782
142 1 5.8231 11.8233 9.10402
143 1 8.80296 12.1529 12.5827
144 1 5.87291 14.6467 11.6482
145 1 5.99758 10.8225 15.1156
146 1 9.13755 12.5668 17.3795
147 1 5.24514 14.5628 17.6519
148 1 6.6411 12.4152 20.7772
149 1 8.93527 16.7964 0.290622
150 1 6.77724 20.4644 0.736586
151 1 5.28321 17.3896 2.86253
152 1 8.90778 17.2158 5.13395
153 1 6.67608 20.4917 5.99171
154 1 6.9805 17.2337 8.71959
155 1 9.28565 16.7621 11.9434
156 1 6.84486 20.4859 11.8368
157 1 5.61522 17.529 14.5182
158 1 9.12016 16.7383 17.4409
159 1 6.40173 20.4211 17.5013
160 1 6.83694 17.5737 20.6476
161 1 14.8041 22.8444 0.495719
162 1 13.0223 3.35424 23.5005
163 1 12.5358 0.761545 3.23883
164 1 14.8072 22.8345 6.34456
165 1 13.1822 3.3086 6.1265
166 1 11.982 1.23024 8.85987
167 1 14.9915 22.548 12.0086
168 1 13.0363 3.34809 11.9352
169 1 11.7373 0.718842 14.905
170 1 14.9124 22.999 17.2429
171 1 12.7495 3.18842 18.6051
172 1 11.631 0.448485 20.9268
173 1 14.9269 7.26934 0.34327
174 1 11.9205 9.0604 23.4615
175 1 11.6796 6.06422 3.27882
176 1 14.7481 7.29109 6.27638
177 1 10.7681 8.72429 6.45917
178 1 12.0956 6.06678 8.93515
179 1 14.876 7.02668 12.6389
180 1 11.7293 9.16035 11.4407
181 1 11.4388 5.67952 14.929
182 1 14.9806 6.36744 17.5791
183 1 11.6781 9.07637 17.9374
184 1 12.3847 6.25886 20.8065
185 1 14.8125 11.9027 1.05887
186 1 12.191 14.7075 0.200605
187 1 11.3487 11.6293 3.07576
188 1 14.9141 12.2229 5.47586
189 1 11.7514 14.8255 5.40215
190 1 11.8974 12.4901 8.79939
191 1 14.7635 11.1782 11.9028
192 1 12.8 14.8422 11.6967
193 1 12.0106 11.4556 14.7123
194 1 15.1342 11.3072 17.7977
195 1 13.0826 14.7186 16.7443
196 1 11.6966 12.5878 20.5295
197 1 14.6849 18.8326 0.0878329
198 1 11.2337 20.7192 0.453673
199 1 12.1367 17.9056 2.80265
200 1 14.8015 18.6932 6.10086
201 1 11.4064 20.707 5.29602
202 1 10.9605 17.5979 8.60633
203 1 15.016 18.5722 11.9709
204 1 10.8755 20.7133 11.5746
205 1 12.0152 17.7006 14.4551
206 1 14.9676 18.0323 17.5792
207 1 11.5601 20.2457 17.0391
208 1 12.467 18.0288 20.5446
209 1 21.2476 0.829381 23.2778
210 1 16.9862 3.23337 0.0537479
211 1 17.2662 23.2957 3.15978
212 1 20.7262 0.969008 5.46908
213 1 17.3936 3.1688 6.08464
214 1 17.8608 22.6701 9.11243
215 1 20.8364 0.803271 12.492
216 1 17.2454 3.03107 12.19
217 1 18.1316 0.812851 15.1078
218 1 20.7109 1.35103 17.9054
219 1 16.8592 3.21595 18.0704
220 1 16.6777 23.0263 20.8669
221 1 21.0479 5.62478 23.0715
222 1 18.2611 9.23174 0.857099
223 1 17.2543 5.93021 3.19662
224 1 20.4042 5.46922 5.90282
225 1 18.4184 8.97992 5.68554
226 1 17.3202 6.07571 9.16025
227 1 20.7032 5.16557 11.9322
228 1 18.2824 9.17001 11.9049
229 1 17.5698 5.81376 14.9546
230 1 20.9007 5.4122 17.7863
231 1 18.7848 8.77102 17.2546
232 1 17.9191 6.95457 20.7009
233 1 20.6377 12.5666 23.3426
234 1 16.2806 15.1546 0.351587
235 1 18.302 12.2045 3.21072
236 1 20.9017 12.4644 6.15858
237 1 17.2878 14.9882 6.67908
238 1 17.414 11.624 8.9595
239 1 20.5395 12.4264 11.4181
240 1 16.9969 15.0299 10.9517
241 1 17.7217 11.5105 14.7482
242 1 20.8546 12.6194 18.0387
243 1 17.0076 14.5531 17.8828
244 1 17.4284 11.5592 20.6878
245 1 20.5145 16.5775 0.081607
246 1 18.7633 20.5632 0.401623
247 1 18.0417 17.2508 2.84077
248 1 20.3909 16.6009 5.94979
249 1 19.0545 20.4849 5.48384
250 1 17.6479 18.7732 8.81018
251 1 20.9283 16.4999 12.1621
252 1 18.7735 20.5298 13.0749
253 1 18.235 17.0625 14.5563
254 1 20.8085 16.8441 17.6726
255 1 18.727 20.5364 17.6191
256 1 17.6956 18.2141 20.571
257 4 2.98692 2.98657 3.2486
258 4 3.36645 3.70208 8.82388
259 4 3.41173 2.69058 14.7574
260 4 3.70817 2.00823 21.1863
261 4 3.29513 9.55561 2.96152
262 4 4.09506 8.707 8.78955
263 4 3.33458 8.75865 14.5273
264 4 3.22146 8.59167 21.3242
265 4 3.08457 14.7614 3.42186
266 4 3.72003 15.1912 8.86091
267 4 3.62531 14.6918 14.5405
268 4 3.46159 13.8377 20.893
269 4 4.11051 20.3978 3.22708
270 4 3.78967 20.0278 8.6992
271 4 3.67859 20.1604 14.2069
272 4 3.74672 20.1796 20.5302
273 4 9.76881 3.09979 3.12451
274 4 9.6138 3.58307 8.8903
275 4 9.47211 2.92806 15.2019
276 4 9.90919 3.2719 21.1969
277 4 9.12282 9.36056 3.50962
278 4 9.03735 8.38277 9.14806
279 4 9.06528 9.40048 15.3165
280 4 9.42961 8.36835 20.8747
281 4 9.52795 14.8869 2.80331
282 4 8.80918 14.5328 8.12909
283 4 10.1052 14.8273 14.3908
284 4 9.31033 14.5105 21.6286
285 4 9.20658 20.4255 3.35659
286 4 8.78879 20.4233 8.7246
287 4 8.87608 21.2709 14.2892
288 4 9.10859 19.9542 19.2167
289 4 15.2071 2.98117 2.80839
290 4 14.5396 3.8172 9.23002
291 4 15.0805 2.3308 14.857
292 4 15.2431 3.09925 20.9031
293 4 15.7526 9.73941 3.36614
294 4 15.2804 8.7071 9.5125
295 4 15.6961 8.79166 15.1534
296 4 14.8885 9.01098 20.1113
297 4 14.1205 14.6984 3.42468
298 4 14.5154 14.2548 8.81509
299 4 15.169 15.5972 14.2106
300 4 14.8834 13.7666 20.2891
301 4 14.7144 20.8561 3.19264
302 4 15.0335 20.8785 8.78218
303 4 14.5072 20.7468 14.7034
304 4 14.9627 20.1216 20.4837
305 4 21.6004 2.69638 2.7197
306 4 20.9074 3.37901 8.32184
307 4 20.2522 3.66969 14.8676
308 4 21.3399 3.1937 20.6653
309 4 20.4131 8.86246 3.24467
310 4 20.2834 9.68611 9.08302
311 4 20.5148 9.42787 14.2847
312 4 21.5138 8.64532 21.2264
313 4 20.317 14.9106 2.77991
314 4 21.4784 14.5597 9.22419
315 4 21.3549 14.9018 14.9541
316 4 21.0164 14.7961 20.9745
317 4 20.9199 21.3347 2.80301
318 4 20.3987 20.9013 8.85959
319 4 21.0605 20.9961 15.063
320 4 20.3915 20.2438 20.6515
321 2 3.38021 4.40212 3.01198
322 2 2.6159 2.48381 8.83295
323 2 3.13264 4.1973 14.9396
324 2 3.62347 3.40343 20.6453
325 2 2.19208 8.66181 3.44349
326 2 2.65054 8.75636 8.64382
327 2 2.62636 9.84009 15.27
328 2 4.45041 8.81812 20.5916
329 2 4.08019 13.9364 2.78772
330 2 3.05867 13.9671 8.41531
331 2 2.98414 13.4571 14.9907
332 2 3.38821 15.3768 20.7063
333 2 2.68713 20.3538 2.87387
334 2 2.36433 20.5132 8.42533
335 2 2.54399 20.4885 15.1155
336 2 2.25765 20.4385 20.4239
337 2 8.40075 3.38721 2.74943
338 2 8.1881 3.0968 9.01307
339 2 8.17515 3.26965 14.6009
340 2 8.74415 2.39973 20.751
341 2 9.20378 8.3561 2.46223
342 2 8.92537 9.93323 9.1615
343 2 9.73009 8.81768 14.1028
344 2 9.3566 9.86217 20.9222
345 2 8.08846 14.6027 2.6985
346 2 9.00422 14.0613 9.55825
347 2 8.60435 15.039 14.5662
348 2 9.84044 15.306 20.5083
349 2 9.12925 21.8593 3.18831
350 2 9.45959 21.6342 8.26504
351 2 8.70133 19.8717 14.714
352 2 9.21363 20.4579 20.592
353 2 14.3738 4.22382 2.83243
354 2 15.7223 2.93036 9.17033
355 2 14.6577 3.73366 15.1685
356 2 15.8048 4.50705 21.0805
357 2 14.3085 9.3706 3.26609
358 2 14.3533 9.60296 8.68617
359 2 14.2197 8.86532 15.1952
360 2 14.3706 10.0529 21.045
361 2 15.0272 15.7077 3.96706
362 2 14.264 15.6507 8.28726
363 2 15.4617 14.1068 14.2873
364 2 14.3198 15.0437 20.6465
365 2 15.9875 20.0585 3.3653
366 2 13.6247 20.6799 9.08013
367 2 15.8451 20.3154 15.1183
368 2 13.8237 21.1202 20.7435
369 2 20.1047 2.91302 2.6044
370 2 19.8204 3.06086 9.32325
371 2 21.6537 3.24493 14.9195
372 2 19.8384 3.26932 20.9508
373 2 21.3098 9.99823 3.13069
374 2 20.1041 8.2092 8.99077
375 2 20.6235 7.92467 14.4683
376 2 20.4129 9.54787 20.8458
377 2 21.5369 14.0734 2.87732
378 2 20.0123 14.7913 9.02759
379 2 20.0812 14.0929 14.9577
380 2 19.5498 14.871 20.663
381 2 21.0789 19.8858 2.72591
382 2 21.04 19.9863 9.87039
383 2 21.1546 19.4961 15.0353
384 2 20.2501 21.7892 20.5875
385 3 3.21706 4.55392 1.90718
386 3 2.79397 4.93602 3.69732
387 3 4.45491 4.5208 3.28804
388 3 3.24688 2.48819 2.38645
389 3 3.47102 2.56604 4.0564
390 3 2.01304 2.90534 3.44081
391 3 2.02919 2.32081 7.89253
392 3 3.36496 1.66057 8.93124
393 3 1.88502 2.52359 9.64091
394 3 4.05159 3.8088 9.58928
395 3 4.01424 3.76647 7.94302
396 3 2.76056 4.56537 8.75583
397 3 2.09847 4.3582 15.3122
398 3 3.7996 4.55253 15.738
399 3 3.41912 4.65714 13.9918
400 3 4.21698 2.5908 14.1129
401 3 3.72519 2.31278 15.6835
402 3 2.65671 2.0343 14.4376
403 3 3.66571 3.39285 19.5286
404 3 2.63006 3.73778 20.9646
405 3 4.4762 4.06183 21.1245
406 3 2.78798 1.57286 20.9415
407 3 4.45508 1.41721 20.7703
408 3 3.88069 2.00466 22.2264
409 3 2.16549 8.72189 4.53648
410 3 1.23222 8.90208 2.99269
411 3 2.40093 7.6243 3.25524
412 3 3.69213 10.2123 3.72061
413 3 4.12748 8.89628 2.81217
414 3 2.93455 10.1108 2.10605
415 3 2.28466 9.74798 8.60871
416 3 2.36602 8.09844 7.80642
417 3 2.2044 8.27698 9.46464
418 3 4.49955 7.78953 9.02293
419 3 4.57569 8.77016 7.87537
420 3 4.47398 9.50615 9.3537
421 3 3.31719 10.5942 15.5707
422 3 1.82477 10.2901 14.6046
423 3 2.26409 9.38398 16.1929
424 3 4.22349 8.59899 15.0325
425 3 2.7807 7.89071 14.5434
426 3 3.43388 9.18117 13.5623
427 3 4.14796 9.09372 19.5527
428 3 4.95315 9.67747 21.0492
429 3 5.1289 7.89459 20.5041
430 3 2.56927 9.2958 20.9984
431 3 2.77612 7.70103 21.2231
432 3 3.3364 8.61314 22.3411
433 3 4.90167 14.6039 2.50589
434 3 4.39295 13.1289 3.46981
435 3 3.5871 13.6181 1.83599
436 3 2.99121 15.6761 2.95679
437 3 2.17797 14.2438 3.38049
438 3 3.23047 14.9604 4.38876
439 3 2.00453 14.0182 8.84848
440 3 2.90145 14.1919 7.2998
441 3 3.6408 13.1089 8.57327
442 3 4.00488 15.1512 9.81629
443 3 4.60059 15.4179 8.30333
444 3 3.06375 15.9856 8.85548
445 3 1.92068 13.552 14.799
446 3 3.51093 12.6336 14.4113
447 3 3.29063 13.3272 16.0053
448 3 3.09303 15.4995 14.8183
449 3 4.58875 14.8118 14.8827
450 3 3.63879 14.8096 13.5265
451 3 4.38347 15.8198 20.9678
452 3 3.05976 15.5664 19.6634
453 3 2.72077 15.7823 21.4746
454 3 4.04901 13.5676 21.7971
455 3 2.57652 13.3548 21.0406
456 3 3.81327 13.3941 19.9369
457 3 2.49603 21.3003 2.29243
458 3 2.40563 19.464 2.279
459 3 2.06986 20.4523 3.77293
460 3 4.47385 19.4235 3.29734
461 3 4.5787 20.8243 2.39088
462 3 4.345 20.9893 4.05485
463 3 1.8402 20.7317 9.44666
464 3 2.56689 21.392 7.7781
465 3 1.73029 19.7989 7.98084
466 3 4.41614 20.7593 9.1077
467 3 3.85288 19.188 9.39421
468 3 4.21773 19.6787 7.8376
469 3 1.72473 19.7763 14.955
470 3 2.84549 20.2546 16.1541
471 3 2.35896 21.52 14.923
472 3 4.48914 20.7702 14.4478
473 3 3.92634 19.1496 14.3136
474 3 3.40735 20.4298 13.2267
475 3 1.96006 21.2097 21.1036
476 3 1.94203 20.6949 19.3729
477 3 1.80689 19.4837 20.8117
478 3 4.10418 20.6758 21.3194
479 3 3.943 19.1762 20.5811
480 3 4.25653 20.482 19.7318
481 3 7.75628 2.50077 2.98298
482 3 8.20298 4.25077 3.42234
483 3 8.2772 3.66078 1.68616
484 3 10.2806 2.26909 2.61037
485 3 10.423 3.89657 2.98739
486 3 9.75898 2.90812 4.14124
487 3 8.12324 2.00245 8.66478
488 3 7.80689 3.2696 10.0107
489 3 7.60941 3.68998 8.26617
490 3 10.3114 2.79651 8.81124
491 3 9.79183 4.17436 8.00843
492 3 9.90483 4.21294 9.67533
493 3 8.12148 2.87837 13.5711
494 3 7.36647 2.75444 15.1959
495 3 8.0145 4.33819 14.5478
496 3 9.80704 3.73188 15.8038
497 3 9.41318 2.07599 15.7717
498 3 10.2237 2.75586 14.4938
499 3 8.60417 2.61571 19.6398
500 3 8.90587 1.32673 20.9306
501 3 7.83473 2.73298 21.3174
502 3 9.81739 4.1825 20.7379
503 3 10.0003 3.42568 22.2092
504 3 10.8447 2.82977 20.8393
505 3 9.04556 7.34805 2.93953
506 3 8.49037 8.4797 1.61972
507 3 10.1749 8.49614 2.0468
508 3 9.47169 8.98994 4.46122
509 3 9.6028 10.2608 3.33477
510 3 8.15084 9.66588 3.7663
511 3 9.80941 10.2188 8.55645
512 3 8.06482 10.2807 8.60891
513 3 8.82296 10.181 10.2429
514 3 8.19893 7.86341 9.44677
515 3 9.40177 8.01001 8.24475
516 3 9.76544 8.23208 9.85109
517 3 9.60732 9.5983 13.356
518 3 10.8396 8.63 14.2994
519 3 9.22994 7.95596 13.729
520 3 9.39689 10.3894 15.4743
521 3 8.05919 9.56098 15.1461
522 3 9.22016 8.8638 16.2038
523 3 10.0962 10.1871 21.6465
524 3 9.76096 10.1734 19.9641
525 3 8.34494 10.2165 21.0971
526 3 8.75864 8.04389 20.1699
527 3 10.3404 7.9736 20.6056
528 3 9.1329 7.95232 21.7844
529 3 7.76757 13.9838 3.54432
530 3 7.57573 15.5414 2.90686
531 3 7.83671 14.1801 1.77598
532 3 10.0868 14.1266 3.05807
533 3 9.82931 15.3073 1.89047
534 3 9.636 15.6393 3.60015
535 3 8.68779 12.9917 9.55636
536 3 10.0328 14.2249 9.84032
537 3 8.39485 14.5913 10.2608
538 3 8.95798 13.7365 7.41865
539 3 7.94842 15.0356 7.91744
540 3 9.50649 15.1913 7.86493
541 3 8.38298 16.1516 14.8485
542 3 8.14837 14.7236 13.6368
543 3 8.40319 14.4276 15.3994
544 3 10.3337 15.0447 13.408
545 3 10.5638 15.4869 14.9595
546 3 10.4402 13.9024 14.6542
547 3 10.947 15.3465 20.5111
548 3 9.40916 14.9475 19.5672
549 3 9.46933 16.3058 20.7339
550 3 9.27146 15.0602 22.5503
551 3 8.29317 14.2995 21.4571
552 3 9.81019 13.6456 21.8425
553 3 9.95321 22.3438 3.66993
554 3 9.03279 22.1191 2.06749
555 3 8.1999 22.1844 3.66721
556 3 8.3917 20.0871 2.88065
557 3 10.0275 20.0387 2.82007
558 3 9.14246 20.0866 4.29137
559 3 10.4128 21.7972 8.82247
560 3 9.55301 21.6629 7.16271
561 3 8.91584 22.5485 8.45038
562 3 8.00249 20.2105 8.09364
563 3 9.38153 19.5857 8.66104
564 3 8.45123 20.431 9.71863
565 3 7.93214 19.8726 15.4939
566 3 8.42707 19.2475 13.9081
567 3 9.62417 19.5191 15.2044
568 3 9.5436 21.3255 13.4682
569 3 7.969 21.7233 13.9842
570 3 9.30197 21.836 15.0609
571 3 8.22282 20.9234 20.8442
572 3 9.50356 19.6426 21.2575
573 3 9.83655 21.3052 20.6857
574 3 8.48897 20.58 18.5767
575 3 10.0016 19.8222 18.7165
576 3 8.60366 19.0042 19.1493
577 3 14.7916 4.95644 2.15288
578 3 13.3447 3.97949 2.60674
579 3 14.424 4.51962 3.89442
580 3 15.9502 2.9356 3.49752
581 3 14.605 2.17106 3.00545
582 3 15.6853 2.84506 1.90683
583 3 15.8278 2.57227 8.11219
584 3 16.5405 3.5582 9.43382
585 3 15.5041 2.11722 9.87025
586 3 14.1613 3.90662 10.2076
587 3 14.6879 4.76461 8.82946
588 3 13.8249 3.52625 8.57274
589 3 15.4943 4.18385 15.6134
590 3 14.463 4.19493 14.2125
591 3 13.8256 3.67786 15.8776
592 3 16.0836 2.24124 14.6268
593 3 14.7759 1.7429 15.668
594 3 14.5531 1.90912 14.0631
595 3 16.8914 4.28064 20.9809
596 3 15.4348 5.11683 20.2239
597 3 15.4021 4.87817 22.0557
598 3 14.1762 3.11282 20.8434
599 3 15.5581 2.70068 19.9259
600 3 15.5464 2.42564 21.622
601 3 13.8751 10.1954 3.82295
602 3 13.958 9.41121 2.18646
603 3 14.059 8.43199 3.79541
604 3 16.0869 9.95214 4.35882
605 3 16.3231 8.95097 3.05106
606 3 16.0307 10.5065 2.72436
607 3 13.8883 10.3402 9.38809
608 3 14.9244 9.99811 7.86922
609 3 13.5779 8.88812 8.25018
610 3 14.8737 8.29442 10.3325
611 3 15.6079 7.90612 8.92772
612 3 16.0688 9.19749 9.94882
613 3 13.9767 9.41981 14.2858
614 3 13.778 7.7919 15.155
615 3 13.9507 9.2623 16.1939
616 3 16.0077 8.51525 14.1837
617 3 16.0784 9.71251 15.4727
618 3 15.9992 8.05063 15.8376
619 3 15.1127 10.8238 21.1548
620 3 13.5588 10.4855 20.5235
621 3 14.2444 9.50644 22.0027
622 3 14.3431 8.1217 20.0835
623 3 14.752 9.37634 19.1625
624 3 15.8094 8.76059 20.2575
625 3 14.8937 15.7009 5.03149
626 3 16.1376 15.4825 3.78283
627 3 14.7067 16.6369 3.4698
628 3 14.441 13.7063 3.6809
629 3 13.1921 14.7764 3.83937
630 3 14.0193 14.6245 2.38441
631 3 13.2351 15.8373 8.15946
632 3 14.7227 16.3281 9.00309
633 3 14.7467 15.8561 7.31341
634 3 15.425 14.2627 9.30699
635 3 13.6838 14.0998 9.46859
636 3 14.5922 13.5128 8.13492
637 3 15.1057 13.6822 15.2667
638 3 14.8799 13.4829 13.5537
639 3 16.5419 14.0018 14.1733
640 3 14.9871 15.8922 13.225
641 3 14.3351 15.8692 14.7586
642 3 16.0425 16.1471 14.3928
643 3 13.2303 14.7489 20.8436
644 3 14.6392 15.5492 21.5639
645 3 14.2388 15.7477 19.8507
646 3 15.4504 13.8897 19.3936
647 3 15.61 13.408 20.8734
648 3 14.2408 12.9722 20.1388
649 3 15.6812 19.027 3.4275
650 3 16.6002 20.1639 2.49717
651 3 16.5536 20.3842 4.1556
652 3 14.0627 20.5787 3.97861
653 3 14.6765 21.891 3.19103
654 3 14.2787 20.5026 2.31853
655 3 13.2373 19.9691 8.38147
656 3 13.5474 20.2413 10.1176
657 3 13.1499 21.7045 9.0822
658 3 15.5189 19.9796 8.58905
659 3 15.1907 21.5002 7.90752
660 3 15.4612 21.2708 9.62674
661 3 15.7339 20.1109 16.1782
662 3 16.0711 19.3676 14.6042
663 3 16.6125 21.1082 14.946
664 3 14.1315 21.4096 15.4385
665 3 14.5993 21.2154 13.7139
666 3 13.8355 19.9343 14.5706
667 3 12.8914 20.5302 20.4742
668 3 13.8917 21.4289 21.7955
669 3 13.9934 22.0046 20.1928
670 3 14.8638 19.7971 19.5484
671 3 15.8791 20.6012 20.6266
672 3 14.9763 19.2919 21.1062
673 3 19.6086 1.95422 2.52698
674 3 19.6845 3.54315 3.38736
675 3 19.95 3.36039 1.55402
676 3 21.9662 3.61984 2.79786
677 3 21.8162 2.1195 3.58145
678 3 21.8946 2.25722 1.83432
679 3 19.1642 2.36705 8.86541
680 3 20.2732 2.79835 10.2721
681 3 19.2266 3.93203 9.52207
682 3 20.5389 3.88261 7.4594
683 3 21.6534 4.05368 8.6702
684 3 21.4968 2.551 8.07121
685 3 21.6792 2.47198 15.759
686 3 21.9141 2.82827 13.9311
687 3 22.2638 4.12912 15.1116
688 3 20.0604 4.25664 15.7216
689 3 20.0393 4.29436 14.0387
690 3 19.5949 2.84043 14.864
691 3 19.5335 3.42396 21.9461
692 3 19.3895 4.14972 20.4084
693 3 19.4514 2.34474 20.4923
694 3 21.8412 3.94302 21.2129
695 3 21.6718 2.2476 20.8611
696 3 21.4029 3.40432 19.7071
697 3 20.9535 10.8347 3.62707
698 3 22.2023 9.65038 3.5755
699 3 21.4751 10.1668 2.02758
700 3 19.7261 8.99756 3.97671
701 3 19.9167 8.74257 2.34669
702 3 20.8563 7.94358 3.4135
703 3 19.3069 7.88758 9.65516
704 3 19.8623 8.00778 7.98313
705 3 20.9777 7.65743 9.239
706 3 21.115 10.049 8.69523
707 3 19.6307 10.1674 8.43739
708 3 20.2182 9.94559 10.0284
709 3 20.8064 7.45337 13.517
710 3 21.3465 7.71026 15.206
711 3 19.7146 7.55061 14.7983
712 3 20.5133 9.83623 15.2469
713 3 21.3273 9.81392 13.7591
714 3 19.6629 9.8071 13.881
715 3 20.7242 10.5708 20.5582
716 3 19.9215 9.01331 20.0395
717 3 19.6995 9.5959 21.6574
718 3 21.1554 7.67712 21.3944
719 3 22.2894 8.55021 20.6302
720 3 21.9202 8.92678 22.1278
721 3 22.4572 14.6388 2.4333
722 3 21.7385 13.8996 3.93907
723 3 21.2477 13.1354 2.34681
724 3 19.5431 14.2104 2.89876
725 3 20.2189 15.613 3.52948
726 3 20.2374 15.3153 1.76454
727 3 19.8042 15.8217 9.26808
728 3 19.9379 14.6066 7.95373
729 3 19.4949 14.0462 9.69775
730 3 21.577 14.3303 10.2222
731 3 21.8545 13.7336 8.69844
732 3 21.9816 15.392 8.88116
733 3 19.4319 14.6855 15.5906
734 3 19.7882 14.1341 13.8991
735 3 20.2518 13.059 15.2897
736 3 21.2839 15.6525 15.6414
737 3 22.1979 14.3436 15.1407
738 3 21.5665 15.3644 14.076
739 3 18.9597 14.6654 21.505
740 3 19.3533 15.9397 20.272
741 3 19.3201 14.1074 19.9346
742 3 21.4689 15.4878 21.5127
743 3 21.2139 13.9262 21.4936
744 3 21.6088 14.7073 20.0962
745 3 20.1579 19.3186 2.61092
746 3 21.8448 19.5571 2.00802
747 3 21.5046 19.6745 3.72644
748 3 21.8584 21.7284 2.97052
749 3 20.5131 21.7227 1.93621
750 3 20.3486 21.5406 3.68075
751 3 20.4992 19.0208 9.79577
752 3 22.1062 19.8454 9.52452
753 3 20.9068 20.4408 10.8541
754 3 20.5542 20.3877 7.95747
755 3 19.3466 20.96 8.97613
756 3 20.8754 21.8091 8.91845
757 3 22.1049 19.3274 15.4675
758 3 20.3222 18.9275 15.5484
759 3 21.2124 19.1753 13.9981
760 3 21.7457 21.2866 15.7791
761 3 21.368 21.391 14.2005
762 3 20.2438 21.3753 15.4892
763 3 20.0369 22.1309 19.563
764 3 19.4464 22.1011 21.2598
765 3 21.2562 22.2405 20.803
766 3 19.4574 19.7038 20.8024
767 3 20.7815 19.8619 19.7691
768 3 20.8916 19.9981 21.4684
ITEM: TIMESTEP
4360000
ITEM: NUMBER OF ATOMS
768
ITEM: BOX BOUNDS xy xz yz pp pp pp
-4.1123375716591193e-02 2.3608193249315999e+01 2.7874679101761812e-01
4.1397660166982675e-01 2.3556368467645726e+01 -4.1567739062311859e-01
6.6355215767975650e-02 2.3637645257427756e+01 2.6634459610931377e-01
ITEM: ATOMS id type x y z
1 5 0.726091 23.0663 0.200871
2 5 23.131 1.12175 6.12737
3 5 0.595258 23.3714 11.933
4 5 22.987 0.774701 17.7175
5 5 23.3145 6.38559 0.384963
6 5 23.0361 6.69311 6.24844
7 5 23.1598 6.34308 12.0695
8 5 22.8334 6.18935 17.8018
9 5 0.81264 11.7201 0.274725
10 5 0.561672 12.2445 5.96958
11 5 0.470831 11.8187 11.8808
12 5 23.0541 12.068 17.8642
13 5 0.359536 17.9 23.4195
14 5 23.3945 18.3309 5.90322
15 5 0.570708 17.7716 11.9104
16 5 23.0971 18.118 17.5645
17 5 6.06988 23.3837 23.4531
18 5 6.05392 23.2656 5.86409
19 5 5.81991 0.552237 11.6127
20 5 5.51695 0.777211 17.5761
21 5 6.02707 6.31079 23.6152
22 5 6.05595 6.07568 5.90787
23 5 5.80035 6.35668 11.9454
24 5 5.80803 6.41756 17.8419
25 5 5.96673 12.097 23.3213
26 5 6.24656 11.7996 5.8316
27 5 6.14477 11.9134 11.9205
28 5 6.47783 12.3832 17.8114
29 5 6.70823 17.3136 0.328114
30 5 6.41205 17.507 6.01359
31 5 6.46291 17.4219 11.8459
32 5 6.0702 17.9766 17.7371
33 5 11.5315 23.3527 23.5915
34 5 11.9478 23.3369 6.10689
35 5 11.8117 23.3592 11.7246
36 5 11.5393 23.3809 17.5544
37 5 11.8378 6.20486 23.5774
38 5 11.9798 6.21028 5.72987
39 5 11.7936 6.40177 11.9724
40 5 11.7532 6.32545 17.7723
41 5 11.8131 11.6947 23.4367
42 5 11.9938 11.7603 5.9058
43 5 11.7595 11.9276 11.9977
44 5 12.027 11.9239 17.6341
45 5 12.2477 17.7754 0.448265
46 5 11.8902 17.9041 6.10558
47 5 11.9011 17.5731 11.8602
48 5 11.438 17.6564 17.9902
49 5 17.3102 23.3024 23.5994
50 5 17.7164 23.1905 6.10166
51 5 17.6505 23.2455 12.0088
52 5 17.513 23.129 17.8286
53 5 17.616 5.91311 0.115532
54 5 17.7706 6.2819 5.78088
55 5 17.4519 6.22464 11.6833
56 5 17.5295 6.39114 17.6884
57 5 17.7131 12.4115 23.6349
58 5 17.5628 12.4515 5.86183
59 5 17.5242 11.9987 11.9382
60 5 17.6232 12.0716 17.7231
61 5 17.6599 17.508 0.248451
62 5 17.6717 17.9183 6.03516
63 5 17.7889 17.748 11.8127
64 5 17.5999 17.7184 17.5774
65 1 3.62869 22.8716 0.472959
66 1 23.2706 3.44044 0.321569
67 1 23.528 23.2337 3.05485
68 1 3.30164 22.9282 5.52906
69 1 0.934705 3.84566 5.38047
70 1 22.8336 23.3771 9.03327
71 1 3.17526 22.0756 11.9693
72 1 0.7328 3.40474 12.2125
73 1 0.714845 22.6725 14.9373
74 1 2.9705 22.4762 18.0196
75 1 0.874015 3.50312 17.2036
76 1 22.8402 0.786488 20.813
77 1 2.98501 6.63327 23.2443
78 1 22.6903 9.34499 22.9624
79 1 22.5073 6.84351 3.24309
80 1 3.27773 7.21216 5.7792
81 1 21.9138 9.58785 6.06351
82 1 23.1304 5.55838 9.08848
83 1 2.92285 7.24191 12.4246
84 1 22.5244 9.13703 11.24
85 1 22.4971 6.58048 14.9136
86 1 2.77688 6.83968 17.9403
87 1 22.7038 9.1728 18.5568
88 1 0.114324 5.90808 20.8922
89 1 3.10056 11.0481 23.5323
90 1 1.57297 14.7794 23.6328
91 1 23.2812 11.6611 3.15295
92 1 3.53496 10.9103 5.81789
93 1 1.42166 14.8846 6.35329
94 1 22.6791 12.2382 8.90513
95 1 3.31553 11.3053 11.7872
96 1 0.417439 14.9049 11.8265
97 1 23.1732 12.3103 14.8571
98 1 2.92789 11.5294 18.352
99 1 1.00989 14.903 17.6851
100 1 0.321457 12.4345 20.8854
101 1 3.38492 18.6025 23.559
102 1 22.8898 20.3447 0.169812
103 1 0.617397 16.9689 2.84364
104 1 3.57123 17.9593 6.45915
105 1 22.5961 20.9559 6.11589
106 1 23.2113 17.8221 8.89753
107 1 3.43691 17.9021 11.5936
108 1 22.2939 20.5103 11.5485
109 1 23.2479 16.9813 14.8493
110 1 3.13737 18.7811 17.9896
111 1 22.1267 20.7428 17.7695
112 1 22.6634 17.9205 20.476
113 1 9.01242 1.40731 0.273365
114 1 4.93684 3.40157 23.2205
115 1 6.04397 0.630377 3.07072
116 1 8.70861 1.26229 6.25627
117 1 4.6797 3.46003 5.90097
118 1 5.62664 22.4974 8.76341
119 1 8.68596 1.19086 12.4736
120 1 5.17955 3.34869 11.4267
121 1 5.92007 1.16819 14.6039
122 1 8.576 1.55896 17.3898
123 1 5.07645 3.56092 17.9219
124 1 5.45406 0.658264 20.5341
125 1 8.82327 5.43452 23.6296
126 1 6.54131 9.24704 23.3249
127 1 6.17046 6.29263 2.88686
128 1 8.82593 5.34197 6.53441
129 1 7.1484 8.83008 6.06966
130 1 5.16075 6.22339 9.01342
131 1 8.8003 6.11053 11.9423
132 1 6.5245 9.071 11.127
133 1 5.94887 7.03654 15.0258
134 1 8.91504 5.91759 17.9668
135 1 6.57532 9.52973 18.2721
136 1 6.28025 6.10105 20.8265
137 1 9.31559 12.2372 0.451862
138 1 5.11893 15.0575 23.2107
139 1 6.24029 11.1963 2.84209
140 1 9.11366 12.4216 6.21703
141 1 5.61584 14.5137 5.79746
142 1 5.9364 11.9927 8.77988
143 1 9.10402 12.7181 11.4682
144 1 5.3051 14.7063 12.1436
145 1 6.56519 11.4753 14.7273
146 1 9.2636 13.0027 18.5817
147 1 5.1927 15.1639 17.4793
148 1 5.65984 12.5213 20.4001
149 1 9.55926 16.9297 1.11968
150 1 7.2208 20.1918 0.209043
151 1 5.67738 17.311 3.17494
152 1 9.17684 16.8624 5.71693
153 1 6.57477 20.441 5.46538
154 1 6.77539 17.546 8.91177
155 1 9.19516 16.7787 12.1689
156 1 6.70641 20.5157 12.0599
157 1 5.52032 17.9418 14.8494
158 1 8.83959 16.8697 17.2999
159 1 6.87317 20.882 16.942
160 1 6.3064 18.0223 20.8072
161 1 14.4149 22.8148 22.9572
162 1 12.6707 3.03351 0.399576
163 1 11.8512 0.460803 2.99336
164 1 14.7879 22.6913 5.66395
165 1 12.3669 3.24463 5.65412
166 1 11.98 1.19386 8.7502
167 1 14.6451 23.0861 12.3051
168 1 11.809 3.344 12.4946
169 1 11.7562 23.1613 14.814
170 1 14.5225 22.6434 17.6453
171 1 12.327 3.2048 17.5176
172 1 11.1081 1.20199 20.5838
173 1 15.0085 6.77079 0.339924
174 1 10.9414 8.95659 23.4339
175 1 11.7541 6.2748 2.84687
176 1 14.9752 6.83457 5.62175
177 1 10.96 8.93522 6.06501
178 1 11.2725 5.68766 9.05472
179 1 14.7358 6.83212 12.4322
180 1 11.7293 9.07382 11.0858
181 1 11.1777 6.31633 14.9261
182 1 14.6499 6.60993 17.1698
183 1 10.9303 9.21612 17.7743
184 1 11.3805 6.45282 20.634
185 1 15.1842 11.5374 0.359339
186 1 12.3318 14.8799 23.5428
187 1 12.2771 11.8753 2.93444
188 1 14.8807 11.3398 5.90354
189 1 12.2335 14.6125 5.58665
190 1 11.9576 12.0746 8.92112
191 1 14.7043 11.4834 12.0096
192 1 12.6471 14.7247 12.0651
193 1 11.2218 11.8927 14.8891
194 1 14.7721 10.8375 17.4625
195 1 12.107 14.8992 18.039
196 1 12.4301 11.8594 20.6504
197 1 14.7611 18.899 23.1397
198 1 10.6867 20.5978 23.342
199 1 12.4873 18.8165 3.11003
200 1 14.9201 18.5689 6.22538
201 1 11.011 20.5232 6.37939
202 1 11.0925 18.0297 8.90302
203 1 14.6387 18.1081 11.3844
204 1 11.6679 20.5297 11.9299
205 1 12.2061 17.5598 14.7906
206 1 14.4239 18.3809 17.6292
207 1 10.2298 20.4985 17.7426
208 1 11.3526 17.7262 20.8608
209 1 20.0426 1.06852 23.5842
210 1 16.2889 3.25619 23.4281
211 1 17.3516 0.552004 3.1405
212 1 20.2126 1.45187 5.72149
213 1 16.5527 3.54309 5.94246
214 1 16.8189 22.9719 9.14735
215 1 20.2691 0.958445 12.0369
216 1 17.1651 3.23328 12.0369
217 1 17.9557 0.724807 14.829
218 1 19.9954 0.962876 18.4323
219 1 16.4839 3.31408 18.1079
220 1 17.3233 23.0689 20.7983
221 1 20.0807 6.21849 23.1914
222 1 17.426 9.30166 23.6023
223 1 18.7536 6.22492 2.79324
224 1 20.5127 5.12021 6.46024
225 1 18.2009 9.24817 5.76792